 Gaussian 16, Revision C.01,
 Gaussian 16:  ES64L-G16RevC.01  3-Jul-2019

 ----------------------------------------------------------------------
 #n wB97XD/Gen NoSymm SCF=XQC Opt=(MaxCycles=200) Freq Temp=373.150 Pre
 ssure=1.00000
 ----------------------------------------------------------------------

 ----
 C2H4
 ----
 Symbolic Z-matrix:
 Charge =  0 Multiplicity = 1

 SCF Done:  E(RwB97XD) =  -78.5864918669     A.U. after   11 cycles
 SCF Done:  E(RwB97XD) =  -78.5868932346     A.U. after    9 cycles
 SCF Done:  E(RwB97XD) =  -78.5869429055     A.U. after    7 cycles
 Optimization completed.
    -- Stationary point found.
 Normal termination of Gaussian 16 at Thu Mar  2 04:40:55 2023.

 -------------------------------------------------------------------
 #N Geom=AllCheck Guess=TCheck SCRF=Check GenChk RwB97XD/ChkBas Freq
 -------------------------------------------------------------------

 Structure from the checkpoint file:  "/scratch/cakim2/502647/Gau-6631.chk"
 ----
 C2H4
 ----
 Charge =  0 Multiplicity = 1

                          Input orientation:
 ---------------------------------------------------------------------
 Center     Atomic      Atomic             Coordinates (Angstroms)
 Number     Number       Type             X           Y           Z
 ---------------------------------------------------------------------
      1          6           0        0.550856    0.937430   -0.000000
      2          6           0        1.873464    0.937430    0.000000
      3          1           0       -0.018198    0.014773    0.000000
      4          1           0       -0.018198    1.860087   -0.000000
      5          1           0        2.442518    0.014773   -0.000000
      6          1           0        2.442518    1.860087    0.000000
 ---------------------------------------------------------------------

 SCF Done:  E(RwB97XD) =  -78.5869429055     A.U. after    1 cycles

 Alpha  occ. eigenvalues --  -10.28400 -10.28301  -0.86457  -0.67427  -0.56103
 Alpha  occ. eigenvalues --   -0.50938  -0.43874  -0.36000
 Alpha virt. eigenvalues --    0.07313   0.14646   0.17045   0.17477   0.23127
 Alpha virt. eigenvalues --    0.27533   0.28797   0.29873   0.30174   0.35107
 Alpha virt. eigenvalues --    0.39732   0.42747   0.49990   0.54942   0.55035

 Mulliken charges:
               1
     1  C   -0.247248
     2  C   -0.247248
     3  H    0.123624
     4  H    0.123624
     5  H    0.123624
     6  H    0.123624
 Sum of Mulliken charges =   0.00000

 Dipole moment (field-independent basis, Debye):
    X=             -0.0000    Y=             -0.0000    Z=              0.0000  Tot=              0.0000
 Quadrupole moment (field-independent basis, Debye-Ang):
   XX=            -12.1996   YY=            -12.1972   ZZ=            -15.6398
   XY=             -0.0000   XZ=             -0.0000   YZ=              0.0000

  Exact polarizability:      34.632       0.000      21.511       0.000       0.000      15.819
 Approx polarizability:      35.706       0.000      20.680       0.000       0.000      15.488

                      1                      2                      3
                      A                      A                      A
 Frequencies --    846.9203               989.5291              1001.3971
 Red. masses --      1.0426                 1.1607                 1.5196
 Frc consts  --      0.4406                 0.6696                 0.8978
 IR Inten    --      0.8389               116.5973                 0.0000

                      4                      5                      6
                      A                      A                      A
 Frequencies --   1070.5415              1249.8564              1394.7386
 Red. masses --      1.0078                 1.5262                 1.1952
 Frc consts  --      0.6805                 1.4047                 1.3698
 IR Inten    --      0.0000                 0.0000                 0.0000

                      7                      8                      9
                      A                      A                      A
 Frequencies --   1479.7805              1717.2902              3149.3570
 Red. masses --      1.1119                 3.3164                 1.0478
 Frc consts  --      1.4346                 5.7624                 6.1229
 IR Inten    --     11.6432                 0.0000                15.1524

                     10                     11                     12
                      A                      A                      A
 Frequencies --   3167.4555              3229.7301              3255.6429
 Red. masses --      1.0758                 1.1153                 1.1178
 Frc consts  --      6.3590                 6.8545                 6.9807
 IR Inten    --      0.0000                 0.0000                21.5063

 - Thermochemistry -
 -------------------
 Temperature   373.150 Kelvin.  Pressure   1.00000 Atm.
 Atom     1 has atomic number  6 and mass  12.00000

 Molecular mass:    28.03130 amu.
 Principal axes and moments of inertia in atomic units:
                           1         2         3
     Eigenvalues --    12.25529  59.27341  71.52871
           X            1.00000  -0.00000  -0.00000
           Y            0.00000   1.00000  -0.00000
           Z            0.00000  -0.00000   1.00000
 This molecule is an asymmetric top.
 Rotational symmetry number  4.
 Rotational temperatures (Kelvin)      7.06747     1.46126     1.21090
 Rotational constants (GHZ):         147.26219    30.44774    25.23101
 Zero-point vibrational energy     134892.3 (Joules/Mol)
                                   32.24004 (Kcal/Mol)
 Vibrational temperatures:   1218.53  1423.71  1440.79  1540.27  1798.26
          (Kelvin)           2006.72  2129.07  2470.80  4531.22  4557.26
                             4646.86  4684.14

 Zero-point correction=                           0.051378 (Hartree/Particle)
 Thermal correction to Energy=                    0.055465
 Thermal correction to Enthalpy=                  0.056646
 Thermal correction to Gibbs Free Energy=         0.024125
 Sum of electronic and zero-point Energies=            -78.535565
 Sum of electronic and thermal Energies=               -78.531478
 Sum of electronic and thermal Enthalpies=             -78.530297
 Sum of electronic and thermal Free Energies=          -78.562818

                     E (Thermal)             CV                S
                      KCal/Mol        Cal/Mol-Kelvin    Cal/Mol-Kelvin
 Total                   34.805              9.702             54.689
 Electronic               0.000              0.000              0.000
 Translational            1.112              2.981             37.042
 Rotational               1.112              2.981             16.506
 Vibrational             32.580              3.740              1.142

 Optimization completed.
    -- Stationary point found.
 Normal termination of Gaussian 16 at Thu Mar  2 04:41:00 2023.
