 Gaussian 16, Revision C.01,
 Gaussian 16:  ES64L-G16RevC.01  3-Jul-2019

 ----------------------------------------------------------------------
 #n wB97XD/Gen NoSymm SCF=XQC Opt=(MaxCycles=200) Freq Temp=473.150 Pre
 ssure=1.00000
 ----------------------------------------------------------------------

 -------
 CrO2Cl2
 -------
 Symbolic Z-matrix:
 Charge =  0 Multiplicity = 1

 SCF Done:  E(RwB97XD) =  -2115.40407767     A.U. after   17 cycles
 SCF Done:  E(RwB97XD) =  -2115.41117777     A.U. after   14 cycles
 SCF Done:  E(RwB97XD) =  -2115.41134112     A.U. after   11 cycles
 SCF Done:  E(RwB97XD) =  -2115.41134708     A.U. after   11 cycles
 SCF Done:  E(RwB97XD) =  -2115.41134877     A.U. after   11 cycles
 Optimization completed.
    -- Stationary point found.
 Normal termination of Gaussian 16 at Thu Mar  2 04:40:16 2023.

 -------------------------------------------------------------------
 #N Geom=AllCheck Guess=TCheck SCRF=Check GenChk RwB97XD/ChkBas Freq
 -------------------------------------------------------------------

 Structure from the checkpoint file:  "/scratch/cakim2/502645/Gau-24553.chk"
 -------
 CrO2Cl2
 -------
 Charge =  0 Multiplicity = 1

                          Input orientation:
 ---------------------------------------------------------------------
 Center     Atomic      Atomic             Coordinates (Angstroms)
 Number     Number       Type             X           Y           Z
 ---------------------------------------------------------------------
      1         24           0        1.299650    0.718901    0.562023
      2          8           0        0.053017    0.016311    0.012789
      3          8           0        2.546282    0.016311    0.012789
      4         17           0        1.299650    2.738596   -0.076495
      5         17           0        1.299650    0.586681    2.676014
 ---------------------------------------------------------------------

 SCF Done:  E(RwB97XD) =  -2115.41134877     A.U. after    1 cycles

 Alpha  occ. eigenvalues -- -216.16454-101.75866-101.75865 -25.10418 -21.37363
 Alpha  occ. eigenvalues --  -21.37186 -21.37159 -19.36062 -19.36062  -9.62320
 Alpha  occ. eigenvalues --   -9.62318  -7.36874  -7.36872  -7.36408  -7.36406
 Alpha  occ. eigenvalues --   -7.36263  -7.36262  -3.19746  -2.14691  -2.13826
 Alpha  occ. eigenvalues --   -2.12439  -1.10251  -1.08970  -0.94681  -0.94046
 Alpha  occ. eigenvalues --   -0.59339  -0.58541  -0.56475  -0.55195  -0.54351
 Alpha  occ. eigenvalues --   -0.50777  -0.49264  -0.47502  -0.46752  -0.43502
 Alpha  occ. eigenvalues --   -0.43054  -0.42592
 Alpha virt. eigenvalues --   -0.12743  -0.09911  -0.09251  -0.04411  -0.01771
 Alpha virt. eigenvalues --    0.06719   0.16463   0.16768   0.17183   0.18053
 Alpha virt. eigenvalues --    0.18663   0.23956   0.25186   0.27237   0.27251

 Mulliken charges:
               1
     1  Cr   0.632833
     2  O   -0.255180
     3  O   -0.255180
     4  Cl  -0.061265
     5  Cl  -0.061208
 Sum of Mulliken charges =  -0.00000

 Dipole moment (field-independent basis, Debye):
    X=              0.0000    Y=              0.3409    Z=              0.2671  Tot=              0.4331
 Quadrupole moment (field-independent basis, Debye-Ang):
   XX=            -52.6375   YY=            -50.7445   ZZ=            -50.7099
   XY=              0.4431   XZ=              0.3472   YZ=             -0.0646

  Exact polarizability:      47.655       0.000      64.801       0.000      -8.599      69.069
 Approx polarizability:      84.892       0.000      86.317       0.000      -1.311      86.968

                      1                      2                      3
                      A                      A                      A
 Frequencies --    144.5541               231.3186               243.8926
 Red. masses --     33.2406                24.2680                17.8218
 Frc consts  --      0.4092                 0.7651                 0.6246
 IR Inten    --      0.0606                 0.7250                 0.0000

                      4                      5                      6
                      A                      A                      A
 Frequencies --    283.9773               379.7685               499.1170
 Red. masses --     20.5584                22.0300                25.2962
 Frc consts  --      0.9768                 1.8720                 3.7129
 IR Inten    --      0.2180                 9.4000                14.8087

                      7                      8                      9
                      A                      A                      A
 Frequencies --    502.8992              1125.7737              1136.1158
 Red. masses --     41.4404                20.3038                18.5309
 Frc consts  --      6.1750                15.1610                14.0926
 IR Inten    --    146.7842               186.5337               122.0909

 - Thermochemistry -
 -------------------
 Temperature   473.150 Kelvin.  Pressure   1.00000 Atm.
 Atom     1 has atomic number 24 and mass  51.94051

 Molecular mass:   153.86804 amu.
 Principal axes and moments of inertia in atomic units:
                           1         2         3
     Eigenvalues --   555.91556 939.720081140.56355
           X            0.00000   0.00000   1.00000
           Y           -0.61595   0.78778  -0.00000
           Z            0.78778   0.61595  -0.00000
 This molecule is an asymmetric top.
 Rotational symmetry number  1.
 Warning -- assumption of classical behavior for rotation
           may cause significant error
 Rotational temperatures (Kelvin)      0.15580     0.09217     0.07594
 Rotational constants (GHZ):           3.24643     1.92051     1.58232
 Zero-point vibrational energy      27199.6 (Joules/Mol)
                                    6.50086 (Kcal/Mol)
 Warning -- explicit consideration of   7 degrees of freedom as
           vibrations may cause significant error
 Vibrational temperatures:    207.98   332.82   350.91   408.58   546.40
          (Kelvin)            718.12   723.56  1619.74  1634.62

 Zero-point correction=                           0.010360 (Hartree/Particle)
 Thermal correction to Energy=                    0.021445
 Thermal correction to Enthalpy=                  0.022944
 Thermal correction to Gibbs Free Energy=        -0.044116
 Sum of electronic and zero-point Energies=          -2115.400989
 Sum of electronic and thermal Energies=             -2115.389904
 Sum of electronic and thermal Enthalpies=           -2115.388405
 Sum of electronic and thermal Free Energies=        -2115.455465

                     E (Thermal)             CV                S
                      KCal/Mol        Cal/Mol-Kelvin    Cal/Mol-Kelvin
 Total                   13.457             20.269             88.937
 Electronic               0.000              0.000              0.000
 Translational            1.410              2.981             43.297
 Rotational               1.410              2.981             29.256
 Vibrational             10.636             14.308             16.384
 Vibration     1          0.955              1.956              3.637
 Vibration     2          0.979              1.907              2.727
 Vibration     3          0.983              1.899              2.626
 Vibration     4          0.998              1.868              2.339
 Vibration     5          1.042              1.780              1.808
 Vibration     6          1.114              1.646              1.338
 Vibration     7          1.117              1.641              1.326

 Optimization completed.
    -- Stationary point found.
 Normal termination of Gaussian 16 at Thu Mar  2 04:40:31 2023.
