 Gaussian 16, Revision C.01,
 Gaussian 16:  ES64L-G16RevC.01  3-Jul-2019

 ----------------------------------------------------------------------
 #n wB97XD/Gen NoSymm SCF=XQC Opt=(MaxCycles=200) Freq Temp=473.150 Pre
 ssure=1.00000
 ----------------------------------------------------------------------

 ---
 HCl
 ---
 Symbolic Z-matrix:
 Charge =  0 Multiplicity = 1

 SCF Done:  E(RwB97XD) =  -460.765093263     A.U. after   12 cycles
 SCF Done:  E(RwB97XD) =  -460.791585488     A.U. after   11 cycles
 SCF Done:  E(RwB97XD) =  -460.811831380     A.U. after   13 cycles
 SCF Done:  E(RwB97XD) =  -460.811891132     A.U. after    8 cycles
 Optimization completed.
    -- Stationary point found.
 Normal termination of Gaussian 16 at Fri Mar 10 17:38:56 2023.

 -------------------------------------------------------------------
 #N Geom=AllCheck Guess=TCheck SCRF=Check GenChk RwB97XD/ChkBas Freq
 -------------------------------------------------------------------

 Structure from the checkpoint file:  "/scratch/cakim2/504407/Gau-26386.chk"
 ---
 HCl
 ---
 Charge =  0 Multiplicity = 1

                          Input orientation:
 ---------------------------------------------------------------------
 Center     Atomic      Atomic             Coordinates (Angstroms)
 Number     Number       Type             X           Y           Z
 ---------------------------------------------------------------------
      1          1           0        0.191767    0.000000    0.000000
      2         17           0        1.476813    0.000000    0.000000
 ---------------------------------------------------------------------

 SCF Done:  E(RwB97XD) =  -460.811891132     A.U. after    1 cycles

 Alpha  occ. eigenvalues -- -101.73025  -9.59610  -7.34446  -7.33463  -7.33463
 Alpha  occ. eigenvalues --   -0.94527  -0.55799  -0.41662  -0.41662
 Alpha virt. eigenvalues --    0.07877   0.27554   0.43042   0.43042   0.44053
 Alpha virt. eigenvalues --    0.74761   0.76969   0.76969   0.86044   0.86045
 Alpha virt. eigenvalues --    1.05532   1.62866   1.62866   2.12263   2.34084

 Mulliken charges:
               1
     1  H    0.189195
     2  Cl  -0.189195
 Sum of Mulliken charges =  -0.00000

 Dipole moment (field-independent basis, Debye):
    X=             -1.4429    Y=             -0.0000    Z=             -0.0000  Tot=              1.4429
 Quadrupole moment (field-independent basis, Debye-Ang):
   XX=            -14.2723   YY=            -13.8881   ZZ=            -13.8881
   XY=              0.0000   XZ=             -0.0000   YZ=             -0.0000

  Exact polarizability:      13.157      -0.000       6.976       0.000      -0.000       6.976
 Approx polarizability:      14.731      -0.000       7.428       0.000       0.000       7.428

                      1
                      A
 Frequencies --   2966.6778
 Red. masses --      1.0360
 Frc consts  --      5.3722
 IR Inten    --     34.1927

 - Thermochemistry -
 -------------------
 Temperature   473.150 Kelvin.  Pressure   1.00000 Atm.
 Atom     1 has atomic number  1 and mass   1.00783

 Molecular mass:    35.97668 amu.
 Principal axes and moments of inertia in atomic units:
                           1         2         3
     Eigenvalues --     0.00000   5.77671   5.77671
           X            1.00000  -0.00000   0.00000
           Y            0.00000   1.00000   0.00000
           Z            0.00000   0.00000   1.00000
 This molecule is a prolate symmetric top.
 Rotational symmetry number  1.
 Rotational temperature (Kelvin)     14.99364
 Rotational constant (GHZ):         312.416653
 Zero-point vibrational energy      17744.7 (Joules/Mol)
                                    4.24108 (Kcal/Mol)
 Vibrational temperatures:   4268.39
          (Kelvin)

 Zero-point correction=                           0.006759 (Hartree/Particle)
 Thermal correction to Energy=                    0.010506
 Thermal correction to Enthalpy=                  0.012005
 Thermal correction to Gibbs Free Energy=        -0.024048
 Sum of electronic and zero-point Energies=           -460.805133
 Sum of electronic and thermal Energies=              -460.801385
 Sum of electronic and thermal Enthalpies=            -460.799887
 Sum of electronic and thermal Free Energies=         -460.835939

                     E (Thermal)             CV                S
                      KCal/Mol        Cal/Mol-Kelvin    Cal/Mol-Kelvin
 Total                    6.593              4.988             47.814
 Electronic               0.000              0.000              0.000
 Translational            1.410              2.981             38.965
 Rotational               0.940              1.987              8.847
 Vibrational              4.242              0.020              0.002

 Optimization completed.
    -- Stationary point found.
 Normal termination of Gaussian 16 at Fri Mar 10 17:38:59 2023.
